    1C
    1UUSER                                                              
    1UDATE              06.december.2019                                
    1UTIME              12:26:54                                        
    1UHOST                                                              
    1UPGM               CalculiX                                        
    1UVERSION           Version 2.11                             
    1UCOMPILETIME       So 31. Jul 13:26:31 CEST 2016                    
    1UDIR                                                               
    1UDBN                                                               
    1UMAT    1MYMATERIAL_ACTIVE_TOP_ELEM_1                              
    1UMAT    2MYMATERIAL_ACTIVE_MID_ELEM_1                              
    1UMAT    3MYMATERIAL_ACTIVE_BTM_ELEM_1                              
    1UMAT    4MYMATERIAL_ACTIVE_TOP_ELEM_2                              
    1UMAT    5MYMATERIAL_ACTIVE_MID_ELEM_2                              
    1UMAT    6MYMATERIAL_ACTIVE_BTM_ELEM_2                              
    1UMAT    7MYMATERIAL_ACTIVE_TOP_ELEM_3                              
    1UMAT    8MYMATERIAL_ACTIVE_MID_ELEM_3                              
    1UMAT    9MYMATERIAL_ACTIVE_BTM_ELEM_3                              
    1UMAT   10MYMATERIAL_ACTIVE_TOP_ELEM_4                              
    1UMAT   11MYMATERIAL_ACTIVE_MID_ELEM_4                              
    1UMAT   12MYMATERIAL_ACTIVE_BTM_ELEM_4                              
    1UMAT   13MYMATERIAL_ACTIVE_TOP_ELEM_5                              
    1UMAT   14MYMATERIAL_ACTIVE_MID_ELEM_5                              
    1UMAT   15MYMATERIAL_ACTIVE_BTM_ELEM_5                              
    1UMAT   16MYMATERIAL_ACTIVE_TOP_ELEM_6                              
    1UMAT   17MYMATERIAL_ACTIVE_MID_ELEM_6                              
    1UMAT   18MYMATERIAL_ACTIVE_BTM_ELEM_6                              
    1UMAT   19MYMATERIAL_ACTIVE_TOP_ELEM_7                              
    1UMAT   20MYMATERIAL_ACTIVE_MID_ELEM_7                              
    1UMAT   21MYMATERIAL_ACTIVE_BTM_ELEM_7                              
    1UMAT   22MYMATERIAL_ACTIVE_TOP_ELEM_8                              
    1UMAT   23MYMATERIAL_ACTIVE_MID_ELEM_8                              
    1UMAT   24MYMATERIAL_ACTIVE_BTM_ELEM_8                              
    1UMAT   25MYMATERIAL_ACTIVE_TOP_ELEM_9                              
    1UMAT   26MYMATERIAL_ACTIVE_MID_ELEM_9                              
    1UMAT   27MYMATERIAL_ACTIVE_BTM_ELEM_9                              
    1UMAT   28MYMATERIAL_ACTIVE_TOP_ELEM_10                             
    1UMAT   29MYMATERIAL_ACTIVE_MID_ELEM_10                             
    1UMAT   30MYMATERIAL_ACTIVE_BTM_ELEM_10                             
    1UMAT   31MYMATERIAL_ACTIVE_TOP_ELEM_11                             
    1UMAT   32MYMATERIAL_ACTIVE_MID_ELEM_11                             
    1UMAT   33MYMATERIAL_ACTIVE_BTM_ELEM_11                             
    1UMAT   34MYMATERIAL_ACTIVE_TOP_ELEM_12                             
    1UMAT   35MYMATERIAL_ACTIVE_MID_ELEM_12                             
    1UMAT   36MYMATERIAL_ACTIVE_BTM_ELEM_12                             
    1UMAT   37MYMATERIAL_ACTIVE_TOP_ELEM_13                             
    1UMAT   38MYMATERIAL_ACTIVE_MID_ELEM_13                             
    1UMAT   39MYMATERIAL_ACTIVE_BTM_ELEM_13                             
    1UMAT   40MYMATERIAL_ACTIVE_TOP_ELEM_14                             
    1UMAT   41MYMATERIAL_ACTIVE_MID_ELEM_14                             
    1UMAT   42MYMATERIAL_ACTIVE_BTM_ELEM_14                             
    1UMAT   43MYMATERIAL_ACTIVE_TOP_ELEM_15                             
    1UMAT   44MYMATERIAL_ACTIVE_MID_ELEM_15                             
    1UMAT   45MYMATERIAL_ACTIVE_BTM_ELEM_15                             
    1UMAT   46MYMATERIAL_ACTIVE_TOP_ELEM_16                             
    1UMAT   47MYMATERIAL_ACTIVE_MID_ELEM_16                             
    1UMAT   48MYMATERIAL_ACTIVE_BTM_ELEM_16                             
    1UMAT   49MYMATERIAL_ACTIVE_TOP_ELEM_17                             
    1UMAT   50MYMATERIAL_ACTIVE_MID_ELEM_17                             
    1UMAT   51MYMATERIAL_ACTIVE_BTM_ELEM_17                             
    1UMAT   52MYMATERIAL_ACTIVE_TOP_ELEM_18                             
    1UMAT   53MYMATERIAL_ACTIVE_MID_ELEM_18                             
    1UMAT   54MYMATERIAL_ACTIVE_BTM_ELEM_18                             
    1UMAT   55MYMATERIAL_ACTIVE_TOP_ELEM_19                             
    1UMAT   56MYMATERIAL_ACTIVE_MID_ELEM_19                             
    1UMAT   57MYMATERIAL_ACTIVE_BTM_ELEM_19                             
    1UMAT   58MYMATERIAL_ACTIVE_TOP_ELEM_20                             
    1UMAT   59MYMATERIAL_ACTIVE_MID_ELEM_20                             
    1UMAT   60MYMATERIAL_ACTIVE_BTM_ELEM_20                             
    1UMAT   61MYMATERIAL_ACTIVE_TOP_ELEM_21                             
    1UMAT   62MYMATERIAL_ACTIVE_MID_ELEM_21                             
    1UMAT   63MYMATERIAL_ACTIVE_BTM_ELEM_21                             
    1UMAT   64MYMATERIAL_ACTIVE_TOP_ELEM_22                             
    1UMAT   65MYMATERIAL_ACTIVE_MID_ELEM_22                             
    1UMAT   66MYMATERIAL_ACTIVE_BTM_ELEM_22                             
    1UMAT   67MYMATERIAL_ACTIVE_TOP_ELEM_23                             
    1UMAT   68MYMATERIAL_ACTIVE_MID_ELEM_23                             
    1UMAT   69MYMATERIAL_ACTIVE_BTM_ELEM_23                             
    1UMAT   70MYMATERIAL_ACTIVE_TOP_ELEM_24                             
    1UMAT   71MYMATERIAL_ACTIVE_MID_ELEM_24                             
    1UMAT   72MYMATERIAL_ACTIVE_BTM_ELEM_24                             
    1UMAT   73MYMATERIAL_ACTIVE_TOP_ELEM_25                             
    1UMAT   74MYMATERIAL_ACTIVE_MID_ELEM_25                             
    1UMAT   75MYMATERIAL_ACTIVE_BTM_ELEM_25                             
    1UMAT   76MYMATERIAL_ACTIVE_TOP_ELEM_26                             
    1UMAT   77MYMATERIAL_ACTIVE_MID_ELEM_26                             
    1UMAT   78MYMATERIAL_ACTIVE_BTM_ELEM_26                             
    1UMAT   79MYMATERIAL_ACTIVE_TOP_ELEM_27                             
    1UMAT   80MYMATERIAL_ACTIVE_MID_ELEM_27                             
    1UMAT   81MYMATERIAL_ACTIVE_BTM_ELEM_27                             
    1UMAT   82MYMATERIAL_ACTIVE_TOP_ELEM_28                             
    1UMAT   83MYMATERIAL_ACTIVE_MID_ELEM_28                             
    1UMAT   84MYMATERIAL_ACTIVE_BTM_ELEM_28                             
    1UMAT   85MYMATERIAL_ACTIVE_TOP_ELEM_29                             
    1UMAT   86MYMATERIAL_ACTIVE_MID_ELEM_29                             
    1UMAT   87MYMATERIAL_ACTIVE_BTM_ELEM_29                             
    1UMAT   88MYMATERIAL_ACTIVE_TOP_ELEM_30                             
    1UMAT   89MYMATERIAL_ACTIVE_MID_ELEM_30                             
    1UMAT   90MYMATERIAL_ACTIVE_BTM_ELEM_30                             
    1UMAT   91MYMATERIAL_ACTIVE_TOP_ELEM_31                             
    1UMAT   92MYMATERIAL_ACTIVE_MID_ELEM_31                             
    1UMAT   93MYMATERIAL_ACTIVE_BTM_ELEM_31                             
    1UMAT   94MYMATERIAL_ACTIVE_TOP_ELEM_32                             
    1UMAT   95MYMATERIAL_ACTIVE_MID_ELEM_32                             
    1UMAT   96MYMATERIAL_ACTIVE_BTM_ELEM_32                             
    1UMAT   97MYMATERIAL_ACTIVE_TOP_ELEM_33                             
    1UMAT   98MYMATERIAL_ACTIVE_MID_ELEM_33                             
    1UMAT   99MYMATERIAL_ACTIVE_BTM_ELEM_33                             
    1UMAT  100MYMATERIAL_ACTIVE_TOP_ELEM_34                             
    1UMAT  101MYMATERIAL_ACTIVE_MID_ELEM_34                             
    1UMAT  102MYMATERIAL_ACTIVE_BTM_ELEM_34                             
    1UMAT  103MYMATERIAL_ACTIVE_TOP_ELEM_35                             
    1UMAT  104MYMATERIAL_ACTIVE_MID_ELEM_35                             
    1UMAT  105MYMATERIAL_ACTIVE_BTM_ELEM_35                             
    1UMAT  106MYMATERIAL_ACTIVE_TOP_ELEM_36                             
    1UMAT  107MYMATERIAL_ACTIVE_MID_ELEM_36                             
    1UMAT  108MYMATERIAL_ACTIVE_BTM_ELEM_36                             
    1UMAT  109MYMATERIAL_ACTIVE_TOP_ELEM_37                             
    1UMAT  110MYMATERIAL_ACTIVE_MID_ELEM_37                             
    1UMAT  111MYMATERIAL_ACTIVE_BTM_ELEM_37                             
    1UMAT  112MYMATERIAL_ACTIVE_TOP_ELEM_38                             
    1UMAT  113MYMATERIAL_ACTIVE_MID_ELEM_38                             
    1UMAT  114MYMATERIAL_ACTIVE_BTM_ELEM_38                             
    1UMAT  115MYMATERIAL_ACTIVE_TOP_ELEM_39                             
    1UMAT  116MYMATERIAL_ACTIVE_MID_ELEM_39                             
    1UMAT  117MYMATERIAL_ACTIVE_BTM_ELEM_39                             
    1UMAT  118MYMATERIAL_ACTIVE_TOP_ELEM_40                             
    1UMAT  119MYMATERIAL_ACTIVE_MID_ELEM_40                             
    1UMAT  120MYMATERIAL_ACTIVE_BTM_ELEM_40                             
    1UMAT  121MYMATERIAL_ACTIVE_TOP_ELEM_41                             
    1UMAT  122MYMATERIAL_ACTIVE_MID_ELEM_41                             
    1UMAT  123MYMATERIAL_ACTIVE_BTM_ELEM_41                             
    1UMAT  124MYMATERIAL_ACTIVE_TOP_ELEM_42                             
    1UMAT  125MYMATERIAL_ACTIVE_MID_ELEM_42                             
    1UMAT  126MYMATERIAL_ACTIVE_BTM_ELEM_42                             
    1UMAT  127MYMATERIAL_ACTIVE_TOP_ELEM_43                             
    1UMAT  128MYMATERIAL_ACTIVE_MID_ELEM_43                             
    1UMAT  129MYMATERIAL_ACTIVE_BTM_ELEM_43                             
    1UMAT  130MYMATERIAL_ACTIVE_TOP_ELEM_44                             
    1UMAT  131MYMATERIAL_ACTIVE_MID_ELEM_44                             
    1UMAT  132MYMATERIAL_ACTIVE_BTM_ELEM_44                             
    1UMAT  133MYMATERIAL_ACTIVE_TOP_ELEM_45                             
    1UMAT  134MYMATERIAL_ACTIVE_MID_ELEM_45                             
    1UMAT  135MYMATERIAL_ACTIVE_BTM_ELEM_45                             
    1UMAT  136MYMATERIAL_ACTIVE_TOP_ELEM_46                             
    1UMAT  137MYMATERIAL_ACTIVE_MID_ELEM_46                             
    1UMAT  138MYMATERIAL_ACTIVE_BTM_ELEM_46                             
    1UMAT  139MYMATERIAL_ACTIVE_TOP_ELEM_47                             
    1UMAT  140MYMATERIAL_ACTIVE_MID_ELEM_47                             
    1UMAT  141MYMATERIAL_ACTIVE_BTM_ELEM_47                             
    1UMAT  142MYMATERIAL_ACTIVE_TOP_ELEM_48                             
    1UMAT  143MYMATERIAL_ACTIVE_MID_ELEM_48                             
    1UMAT  144MYMATERIAL_ACTIVE_BTM_ELEM_48                             
    1UMAT  145MYMATERIAL_ACTIVE_TOP_ELEM_49                             
    1UMAT  146MYMATERIAL_ACTIVE_MID_ELEM_49                             
    1UMAT  147MYMATERIAL_ACTIVE_BTM_ELEM_49                             
    1UMAT  148MYMATERIAL_ACTIVE_TOP_ELEM_50                             
    1UMAT  149MYMATERIAL_ACTIVE_MID_ELEM_50                             
    1UMAT  150MYMATERIAL_ACTIVE_BTM_ELEM_50                             
    1UMAT  151MYMATERIAL_ACTIVE_TOP_ELEM_51                             
    1UMAT  152MYMATERIAL_ACTIVE_MID_ELEM_51                             
    1UMAT  153MYMATERIAL_ACTIVE_BTM_ELEM_51                             
    1UMAT  154MYMATERIAL_ACTIVE_TOP_ELEM_52                             
    1UMAT  155MYMATERIAL_ACTIVE_MID_ELEM_52                             
    1UMAT  156MYMATERIAL_ACTIVE_BTM_ELEM_52                             
    1UMAT  157MYMATERIAL_ACTIVE_TOP_ELEM_53                             
    1UMAT  158MYMATERIAL_ACTIVE_MID_ELEM_53                             
    1UMAT  159MYMATERIAL_ACTIVE_BTM_ELEM_53                             
    1UMAT  160MYMATERIAL_ACTIVE_TOP_ELEM_54                             
    1UMAT  161MYMATERIAL_ACTIVE_MID_ELEM_54                             
    1UMAT  162MYMATERIAL_ACTIVE_BTM_ELEM_54                             
    1UMAT  163MYMATERIAL_ACTIVE_TOP_ELEM_55                             
    1UMAT  164MYMATERIAL_ACTIVE_MID_ELEM_55                             
    1UMAT  165MYMATERIAL_ACTIVE_BTM_ELEM_55                             
    1UMAT  166MYMATERIAL_ACTIVE_TOP_ELEM_56                             
    1UMAT  167MYMATERIAL_ACTIVE_MID_ELEM_56                             
    1UMAT  168MYMATERIAL_ACTIVE_BTM_ELEM_56                             
    1UMAT  169MYMATERIAL_ACTIVE_TOP_ELEM_57                             
    1UMAT  170MYMATERIAL_ACTIVE_MID_ELEM_57                             
    1UMAT  171MYMATERIAL_ACTIVE_BTM_ELEM_57                             
    1UMAT  172MYMATERIAL_ACTIVE_TOP_ELEM_58                             
    1UMAT  173MYMATERIAL_ACTIVE_MID_ELEM_58                             
    1UMAT  174MYMATERIAL_ACTIVE_BTM_ELEM_58                             
    1UMAT  175MYMATERIAL_ACTIVE_TOP_ELEM_59                             
    1UMAT  176MYMATERIAL_ACTIVE_MID_ELEM_59                             
    1UMAT  177MYMATERIAL_ACTIVE_BTM_ELEM_59                             
    1UMAT  178MYMATERIAL_ACTIVE_TOP_ELEM_60                             
    1UMAT  179MYMATERIAL_ACTIVE_MID_ELEM_60                             
    1UMAT  180MYMATERIAL_ACTIVE_BTM_ELEM_60                             
    1UMAT  181MYMATERIAL_ACTIVE_TOP_ELEM_61                             
    1UMAT  182MYMATERIAL_ACTIVE_MID_ELEM_61                             
    1UMAT  183MYMATERIAL_ACTIVE_BTM_ELEM_61                             
    1UMAT  184MYMATERIAL_ACTIVE_TOP_ELEM_62                             
    1UMAT  185MYMATERIAL_ACTIVE_MID_ELEM_62                             
    1UMAT  186MYMATERIAL_ACTIVE_BTM_ELEM_62                             
    1UMAT  187MYMATERIAL_ACTIVE_TOP_ELEM_63                             
    1UMAT  188MYMATERIAL_ACTIVE_MID_ELEM_63                             
    1UMAT  189MYMATERIAL_ACTIVE_BTM_ELEM_63                             
    1UMAT  190MYMATERIAL_ACTIVE_TOP_ELEM_64                             
    1UMAT  191MYMATERIAL_ACTIVE_MID_ELEM_64                             
    1UMAT  192MYMATERIAL_ACTIVE_BTM_ELEM_64                             
    1UMAT  193MYMATERIAL_ACTIVE_TOP_ELEM_65                             
    1UMAT  194MYMATERIAL_ACTIVE_MID_ELEM_65                             
    1UMAT  195MYMATERIAL_ACTIVE_BTM_ELEM_65                             
    1UMAT  196MYMATERIAL_ACTIVE_TOP_ELEM_66                             
    1UMAT  197MYMATERIAL_ACTIVE_MID_ELEM_66                             
    1UMAT  198MYMATERIAL_ACTIVE_BTM_ELEM_66                             
    1UMAT  199MYMATERIAL_ACTIVE_TOP_ELEM_67                             
    1UMAT  200MYMATERIAL_ACTIVE_MID_ELEM_67                             
    1UMAT  201MYMATERIAL_ACTIVE_BTM_ELEM_67                             
    1UMAT  202MYMATERIAL_ACTIVE_TOP_ELEM_68                             
    1UMAT  203MYMATERIAL_ACTIVE_MID_ELEM_68                             
    1UMAT  204MYMATERIAL_ACTIVE_BTM_ELEM_68                             
    1UMAT  205MYMATERIAL_ACTIVE_TOP_ELEM_69                             
    1UMAT  206MYMATERIAL_ACTIVE_MID_ELEM_69                             
    1UMAT  207MYMATERIAL_ACTIVE_BTM_ELEM_69                             
    1UMAT  208MYMATERIAL_ACTIVE_TOP_ELEM_70                             
    1UMAT  209MYMATERIAL_ACTIVE_MID_ELEM_70                             
    1UMAT  210MYMATERIAL_ACTIVE_BTM_ELEM_70                             
    1UMAT  211MYMATERIAL_ACTIVE_TOP_ELEM_71                             
    1UMAT  212MYMATERIAL_ACTIVE_MID_ELEM_71                             
    1UMAT  213MYMATERIAL_ACTIVE_BTM_ELEM_71                             
    1UMAT  214MYMATERIAL_ACTIVE_TOP_ELEM_72                             
    1UMAT  215MYMATERIAL_ACTIVE_MID_ELEM_72                             
    1UMAT  216MYMATERIAL_ACTIVE_BTM_ELEM_72                             
    1UMAT  217MYMATERIAL_ACTIVE_TOP_ELEM_73                             
    1UMAT  218MYMATERIAL_ACTIVE_MID_ELEM_73                             
    1UMAT  219MYMATERIAL_ACTIVE_BTM_ELEM_73                             
    1UMAT  220MYMATERIAL_ACTIVE_TOP_ELEM_74                             
    1UMAT  221MYMATERIAL_ACTIVE_MID_ELEM_74                             
    1UMAT  222MYMATERIAL_ACTIVE_BTM_ELEM_74                             
    1UMAT  223MYMATERIAL_ACTIVE_TOP_ELEM_75                             
    1UMAT  224MYMATERIAL_ACTIVE_MID_ELEM_75                             
    1UMAT  225MYMATERIAL_ACTIVE_BTM_ELEM_75                             
    1UMAT  226MYMATERIAL_ACTIVE_TOP_ELEM_76                             
    1UMAT  227MYMATERIAL_ACTIVE_MID_ELEM_76                             
    1UMAT  228MYMATERIAL_ACTIVE_BTM_ELEM_76                             
    1UMAT  229MYMATERIAL_ACTIVE_TOP_ELEM_77                             
    1UMAT  230MYMATERIAL_ACTIVE_MID_ELEM_77                             
    1UMAT  231MYMATERIAL_ACTIVE_BTM_ELEM_77                             
    1UMAT  232MYMATERIAL_ACTIVE_TOP_ELEM_78                             
    1UMAT  233MYMATERIAL_ACTIVE_MID_ELEM_78                             
    1UMAT  234MYMATERIAL_ACTIVE_BTM_ELEM_78                             
    1UMAT  235MYMATERIAL_ACTIVE_TOP_ELEM_79                             
    1UMAT  236MYMATERIAL_ACTIVE_MID_ELEM_79                             
    1UMAT  237MYMATERIAL_ACTIVE_BTM_ELEM_79                             
    1UMAT  238MYMATERIAL_ACTIVE_TOP_ELEM_80                             
    1UMAT  239MYMATERIAL_ACTIVE_MID_ELEM_80                             
    1UMAT  240MYMATERIAL_ACTIVE_BTM_ELEM_80                             
    1UMAT  241MYMATERIAL_ACTIVE_TOP_ELEM_81                             
    1UMAT  242MYMATERIAL_ACTIVE_MID_ELEM_81                             
    1UMAT  243MYMATERIAL_ACTIVE_BTM_ELEM_81                             
    1UMAT  244MYMATERIAL_ACTIVE_TOP_ELEM_82                             
    1UMAT  245MYMATERIAL_ACTIVE_MID_ELEM_82                             
    1UMAT  246MYMATERIAL_ACTIVE_BTM_ELEM_82                             
    1UMAT  247MYMATERIAL_ACTIVE_TOP_ELEM_83                             
    1UMAT  248MYMATERIAL_ACTIVE_MID_ELEM_83                             
    1UMAT  249MYMATERIAL_ACTIVE_BTM_ELEM_83                             
    1UMAT  250MYMATERIAL_ACTIVE_TOP_ELEM_84                             
    1UMAT  251MYMATERIAL_ACTIVE_MID_ELEM_84                             
    1UMAT  252MYMATERIAL_ACTIVE_BTM_ELEM_84                             
    1UMAT  253MYMATERIAL_ACTIVE_TOP_ELEM_85                             
    1UMAT  254MYMATERIAL_ACTIVE_MID_ELEM_85                             
    1UMAT  255MYMATERIAL_ACTIVE_BTM_ELEM_85                             
    1UMAT  256MYMATERIAL_ACTIVE_TOP_ELEM_86                             
    1UMAT  257MYMATERIAL_ACTIVE_MID_ELEM_86                             
    1UMAT  258MYMATERIAL_ACTIVE_BTM_ELEM_86                             
    1UMAT  259MYMATERIAL_ACTIVE_TOP_ELEM_87                             
    1UMAT  260MYMATERIAL_ACTIVE_MID_ELEM_87                             
    1UMAT  261MYMATERIAL_ACTIVE_BTM_ELEM_87                             
    1UMAT  262MYMATERIAL_ACTIVE_TOP_ELEM_88                             
    1UMAT  263MYMATERIAL_ACTIVE_MID_ELEM_88                             
    1UMAT  264MYMATERIAL_ACTIVE_BTM_ELEM_88                             
    1UMAT  265MYMATERIAL_ACTIVE_TOP_ELEM_89                             
    1UMAT  266MYMATERIAL_ACTIVE_MID_ELEM_89                             
    1UMAT  267MYMATERIAL_ACTIVE_BTM_ELEM_89                             
    1UMAT  268MYMATERIAL_ACTIVE_TOP_ELEM_90                             
    1UMAT  269MYMATERIAL_ACTIVE_MID_ELEM_90                             
    1UMAT  270MYMATERIAL_ACTIVE_BTM_ELEM_90                             
    1UMAT  271MYMATERIAL_ACTIVE_TOP_ELEM_91                             
    1UMAT  272MYMATERIAL_ACTIVE_MID_ELEM_91                             
    1UMAT  273MYMATERIAL_ACTIVE_BTM_ELEM_91                             
    1UMAT  274MYMATERIAL_ACTIVE_TOP_ELEM_92                             
    1UMAT  275MYMATERIAL_ACTIVE_MID_ELEM_92                             
    1UMAT  276MYMATERIAL_ACTIVE_BTM_ELEM_92                             
    1UMAT  277MYMATERIAL_ACTIVE_TOP_ELEM_93                             
    1UMAT  278MYMATERIAL_ACTIVE_MID_ELEM_93                             
    1UMAT  279MYMATERIAL_ACTIVE_BTM_ELEM_93                             
    1UMAT  280MYMATERIAL_ACTIVE_TOP_ELEM_94                             
    1UMAT  281MYMATERIAL_ACTIVE_MID_ELEM_94                             
    1UMAT  282MYMATERIAL_ACTIVE_BTM_ELEM_94                             
    1UMAT  283MYMATERIAL_ACTIVE_TOP_ELEM_95                             
    1UMAT  284MYMATERIAL_ACTIVE_MID_ELEM_95                             
    1UMAT  285MYMATERIAL_ACTIVE_BTM_ELEM_95                             
    1UMAT  286MYMATERIAL_ACTIVE_TOP_ELEM_96                             
    1UMAT  287MYMATERIAL_ACTIVE_MID_ELEM_96                             
    1UMAT  288MYMATERIAL_ACTIVE_BTM_ELEM_96                             
    1UMAT  289MYMATERIAL_ACTIVE_TOP_ELEM_97                             
    1UMAT  290MYMATERIAL_ACTIVE_MID_ELEM_97                             
    1UMAT  291MYMATERIAL_ACTIVE_BTM_ELEM_97                             
    1UMAT  292MYMATERIAL_ACTIVE_TOP_ELEM_98                             
    1UMAT  293MYMATERIAL_ACTIVE_MID_ELEM_98                             
    1UMAT  294MYMATERIAL_ACTIVE_BTM_ELEM_98                             
    1UMAT  295MYMATERIAL_ACTIVE_TOP_ELEM_99                             
    1UMAT  296MYMATERIAL_ACTIVE_MID_ELEM_99                             
    1UMAT  297MYMATERIAL_ACTIVE_BTM_ELEM_99                             
    1UMAT  298MYMATERIAL_ACTIVE_TOP_ELEM_100                            
    1UMAT  299MYMATERIAL_ACTIVE_MID_ELEM_100                            
    1UMAT  300MYMATERIAL_ACTIVE_BTM_ELEM_100                            
    1UMAT  301MYMATERIAL_ACTIVE_TOP_ELEM_101                            
    1UMAT  302MYMATERIAL_ACTIVE_MID_ELEM_101                            
    1UMAT  303MYMATERIAL_ACTIVE_BTM_ELEM_101                            
    1UMAT  304MYMATERIAL_ACTIVE_TOP_ELEM_102                            
    1UMAT  305MYMATERIAL_ACTIVE_MID_ELEM_102                            
    1UMAT  306MYMATERIAL_ACTIVE_BTM_ELEM_102                            
    1UMAT  307MYMATERIAL_ACTIVE_TOP_ELEM_103                            
    1UMAT  308MYMATERIAL_ACTIVE_MID_ELEM_103                            
    1UMAT  309MYMATERIAL_ACTIVE_BTM_ELEM_103                            
    1UMAT  310MYMATERIAL_ACTIVE_TOP_ELEM_104                            
    1UMAT  311MYMATERIAL_ACTIVE_MID_ELEM_104                            
    1UMAT  312MYMATERIAL_ACTIVE_BTM_ELEM_104                            
    1UMAT  313MYMATERIAL_ACTIVE_TOP_ELEM_105                            
    1UMAT  314MYMATERIAL_ACTIVE_MID_ELEM_105                            
    1UMAT  315MYMATERIAL_ACTIVE_BTM_ELEM_105                            
    1UMAT  316MYMATERIAL_ACTIVE_TOP_ELEM_106                            
    1UMAT  317MYMATERIAL_ACTIVE_MID_ELEM_106                            
    1UMAT  318MYMATERIAL_ACTIVE_BTM_ELEM_106                            
    1UMAT  319MYMATERIAL_ACTIVE_TOP_ELEM_107                            
    1UMAT  320MYMATERIAL_ACTIVE_MID_ELEM_107                            
    1UMAT  321MYMATERIAL_ACTIVE_BTM_ELEM_107                            
    1UMAT  322MYMATERIAL_ACTIVE_TOP_ELEM_108                            
    1UMAT  323MYMATERIAL_ACTIVE_MID_ELEM_108                            
    1UMAT  324MYMATERIAL_ACTIVE_BTM_ELEM_108                            
    1UMAT  325MYMATERIAL_ACTIVE_TOP_ELEM_109                            
    1UMAT  326MYMATERIAL_ACTIVE_MID_ELEM_109                            
    1UMAT  327MYMATERIAL_ACTIVE_BTM_ELEM_109                            
    1UMAT  328MYMATERIAL_ACTIVE_TOP_ELEM_110                            
    1UMAT  329MYMATERIAL_ACTIVE_MID_ELEM_110                            
    1UMAT  330MYMATERIAL_ACTIVE_BTM_ELEM_110                            
    1UMAT  331MYMATERIAL_ACTIVE_TOP_ELEM_111                            
    1UMAT  332MYMATERIAL_ACTIVE_MID_ELEM_111                            
    1UMAT  333MYMATERIAL_ACTIVE_BTM_ELEM_111                            
    1UMAT  334MYMATERIAL_ACTIVE_TOP_ELEM_112                            
    1UMAT  335MYMATERIAL_ACTIVE_MID_ELEM_112                            
    1UMAT  336MYMATERIAL_ACTIVE_BTM_ELEM_112                            
    1UMAT  337MYMATERIAL_ACTIVE_TOP_ELEM_113                            
    1UMAT  338MYMATERIAL_ACTIVE_MID_ELEM_113                            
    1UMAT  339MYMATERIAL_ACTIVE_BTM_ELEM_113                            
    1UMAT  340MYMATERIAL_ACTIVE_TOP_ELEM_114                            
    1UMAT  341MYMATERIAL_ACTIVE_MID_ELEM_114                            
    1UMAT  342MYMATERIAL_ACTIVE_BTM_ELEM_114                            
    1UMAT  343MYMATERIAL_ACTIVE_TOP_ELEM_115                            
    1UMAT  344MYMATERIAL_ACTIVE_MID_ELEM_115                            
    1UMAT  345MYMATERIAL_ACTIVE_BTM_ELEM_115                            
    1UMAT  346MYMATERIAL_ACTIVE_TOP_ELEM_116                            
    1UMAT  347MYMATERIAL_ACTIVE_MID_ELEM_116                            
    1UMAT  348MYMATERIAL_ACTIVE_BTM_ELEM_116                            
    1UMAT  349MYMATERIAL_ACTIVE_TOP_ELEM_117                            
    1UMAT  350MYMATERIAL_ACTIVE_MID_ELEM_117                            
    1UMAT  351MYMATERIAL_ACTIVE_BTM_ELEM_117                            
    1UMAT  352MYMATERIAL_ACTIVE_TOP_ELEM_118                            
    1UMAT  353MYMATERIAL_ACTIVE_MID_ELEM_118                            
    1UMAT  354MYMATERIAL_ACTIVE_BTM_ELEM_118                            
    1UMAT  355MYMATERIAL_ACTIVE_TOP_ELEM_119                            
    1UMAT  356MYMATERIAL_ACTIVE_MID_ELEM_119                            
    1UMAT  357MYMATERIAL_ACTIVE_BTM_ELEM_119                            
    1UMAT  358MYMATERIAL_ACTIVE_TOP_ELEM_120                            
    1UMAT  359MYMATERIAL_ACTIVE_MID_ELEM_120                            
    1UMAT  360MYMATERIAL_ACTIVE_BTM_ELEM_120                            
    1UMAT  361MYMATERIAL_ACTIVE_TOP_ELEM_121                            
    1UMAT  362MYMATERIAL_ACTIVE_MID_ELEM_121                            
    1UMAT  363MYMATERIAL_ACTIVE_BTM_ELEM_121                            
    1UMAT  364MYMATERIAL_ACTIVE_TOP_ELEM_122                            
    1UMAT  365MYMATERIAL_ACTIVE_MID_ELEM_122                            
    1UMAT  366MYMATERIAL_ACTIVE_BTM_ELEM_122                            
    1UMAT  367MYMATERIAL_ACTIVE_TOP_ELEM_123                            
    1UMAT  368MYMATERIAL_ACTIVE_MID_ELEM_123                            
    1UMAT  369MYMATERIAL_ACTIVE_BTM_ELEM_123                            
    1UMAT  370MYMATERIAL_ACTIVE_TOP_ELEM_124                            
    1UMAT  371MYMATERIAL_ACTIVE_MID_ELEM_124                            
    1UMAT  372MYMATERIAL_ACTIVE_BTM_ELEM_124                            
    1UMAT  373MYMATERIAL_ACTIVE_TOP_ELEM_125                            
    1UMAT  374MYMATERIAL_ACTIVE_MID_ELEM_125                            
    1UMAT  375MYMATERIAL_ACTIVE_BTM_ELEM_125                            
    1UMAT  376MYMATERIAL_ACTIVE_TOP_ELEM_126                            
    1UMAT  377MYMATERIAL_ACTIVE_MID_ELEM_126                            
    1UMAT  378MYMATERIAL_ACTIVE_BTM_ELEM_126                            
    1UMAT  379MYMATERIAL_ACTIVE_TOP_ELEM_127                            
    1UMAT  380MYMATERIAL_ACTIVE_MID_ELEM_127                            
    1UMAT  381MYMATERIAL_ACTIVE_BTM_ELEM_127                            
    1UMAT  382MYMATERIAL_ACTIVE_TOP_ELEM_128                            
    1UMAT  383MYMATERIAL_ACTIVE_MID_ELEM_128                            
    1UMAT  384MYMATERIAL_ACTIVE_BTM_ELEM_128                            
    1UMAT  385MYMATERIAL_ACTIVE_TOP_ELEM_129                            
    1UMAT  386MYMATERIAL_ACTIVE_MID_ELEM_129                            
    1UMAT  387MYMATERIAL_ACTIVE_BTM_ELEM_129                            
    1UMAT  388MYMATERIAL_ACTIVE_TOP_ELEM_130                            
    1UMAT  389MYMATERIAL_ACTIVE_MID_ELEM_130                            
    1UMAT  390MYMATERIAL_ACTIVE_BTM_ELEM_130                            
    1UMAT  391MYMATERIAL_ACTIVE_TOP_ELEM_131                            
    1UMAT  392MYMATERIAL_ACTIVE_MID_ELEM_131                            
    1UMAT  393MYMATERIAL_ACTIVE_BTM_ELEM_131                            
    1UMAT  394MYMATERIAL_ACTIVE_TOP_ELEM_132                            
    1UMAT  395MYMATERIAL_ACTIVE_MID_ELEM_132                            
    1UMAT  396MYMATERIAL_ACTIVE_BTM_ELEM_132                            
    1UMAT  397MYMATERIAL_ACTIVE_TOP_ELEM_133                            
    1UMAT  398MYMATERIAL_ACTIVE_MID_ELEM_133                            
    1UMAT  399MYMATERIAL_ACTIVE_BTM_ELEM_133                            
    1UMAT  400MYMATERIAL_ACTIVE_TOP_ELEM_134                            
    1UMAT  401MYMATERIAL_ACTIVE_MID_ELEM_134                            